{"id":14,"name":"Ion ascorbato","formula":"C6H7O[-]6","calculatedMolarWeight":true,"molarWeight":"175.116","density":null,"meltingPoint":null,"boilingPoint":null,"acidType":"Base d\u00e9bil","chargeType":"Ani\u00f3n","constants":[{"reportedValue":"ka","kaValues":["1.3E-10",null,null,null,null],"pkaValues":["9.89",null,null,null,null],"reference":{"author":"Chang, R.","citation":"Chang, R., & Goldsby, K. A. (2013). Qu\u00edmica."}}]}