{"id":128,"name":"Ion hidrazinio (2+)","formula":"[+]H3NNH3[+]","calculatedMolarWeight":true,"molarWeight":"34.062","density":null,"meltingPoint":null,"boilingPoint":null,"acidType":"\u00c1cido d\u00e9bil","chargeType":"Cati\u00f3n","constants":[{"reportedValue":"pka","kaValues":["0.537","1.15E-8","3.16E-9",null,null],"pkaValues":["0.27","7.94","8.50",null,null],"reference":{"author":"Speight, J.","citation":"Speight, J. (2016). Lange\u2019s Handbook of Chemistry, Seventeenth Edition. McGraw Hill Professional."}}]}