{"id":7,"name":"\u00c1cido ac\u00e9tico","formula":"CH3COOH","calculatedMolarWeight":false,"molarWeight":"60.050","density":"1.045","meltingPoint":"16.64","boilingPoint":"117.90","acidType":"\u00c1cido d\u00e9bil","chargeType":"Neutro","constants":[{"reportedValue":"ka","kaValues":["1.8E-5",null,null,null,null],"pkaValues":["4.74",null,null,null,null],"reference":{"author":"Chang, R.","citation":"Chang, R., & Goldsby, K. A. (2013). Qu\u00edmica."}},{"reportedValue":"ka","kaValues":["1.75E-5",null,null,null,null],"pkaValues":["4.76",null,null,null,null],"reference":{"author":"Skoog, D.","citation":"Skoog, D., West, D., Holler, F., & Crouch, S. (2013). Fundamentals of Analytical Chemistry. Cengage Learning."}},{"reportedValue":"pka","kaValues":["1.74E-5",null,null,null,null],"pkaValues":["4.76",null,null,null,null],"reference":{"author":"Montuenga, C.","citation":"Montuenga, C. (1979). Formaci\u00f3n de Complejos en Qu\u00edmica Anal\u00edtica. Alhambra, S. A."}}]}