{"id":164,"name":"Diimidotrifosf\u00e1to de hidr\u00f3geno","formula":"(HO)2PO(NH)PO(OH)(NH)PO(OH)2","calculatedMolarWeight":true,"molarWeight":"255.983","density":null,"meltingPoint":null,"boilingPoint":null,"acidType":"\u00c1cido d\u00e9bil","chargeType":"Neutro","constants":[{"reportedValue":"pka","kaValues":["0.1","0.01","0.000933","2.45E-7","1.45E-10"],"pkaValues":["1.00","2.00","3.03","6.61","9.84"],"reference":{"author":"Speight, J.","citation":"Speight, J. (2016). Lange\u2019s Handbook of Chemistry, Seventeenth Edition. McGraw Hill Professional."}}]}