[{"id":86,"name":"\u00c1cido tioci\u00e1nico","formula":"HSCN","calculatedMolarWeight":false,"molarWeight":"59.090","density":null,"meltingPoint":"5.00","boilingPoint":null,"acidType":"\u00c1cido d\u00e9bil","chargeType":"Neutro"},{"id":87,"name":"\u00c1cido tiosulf\u00farico","formula":"H2S2O3","calculatedMolarWeight":false,"molarWeight":"114.150","density":"1.900","meltingPoint":"48.00","boilingPoint":"100.00","acidType":"\u00c1cido d\u00e9bil","chargeType":"Neutro"},{"id":88,"name":"\u00c1cido tricloroac\u00e9tico","formula":"Cl3CCOOH","calculatedMolarWeight":false,"molarWeight":"163.380","density":"1.600","meltingPoint":"57.50","boilingPoint":"195.50","acidType":"\u00c1cido d\u00e9bil","chargeType":"Neutro"},{"id":89,"name":"Ion trimetil amonio","formula":"(CH3)3NH[+]","calculatedMolarWeight":true,"molarWeight":"60.120","density":null,"meltingPoint":null,"boilingPoint":null,"acidType":"\u00c1cido d\u00e9bil","chargeType":"Cati\u00f3n"},{"id":90,"name":"\u00c1cido clorh\u00eddrico","formula":"HCl","calculatedMolarWeight":false,"molarWeight":"36.460","density":"1.526","meltingPoint":"-114.18","boilingPoint":"-85.05","acidType":"\u00c1cido fuerte","chargeType":"Neutro"},{"id":91,"name":"\u00c1cido n\u00edtrico","formula":"HNO3","calculatedMolarWeight":false,"molarWeight":"63.020","density":"1.549","meltingPoint":"-41.59","boilingPoint":"83.00","acidType":"\u00c1cido fuerte","chargeType":"Neutro"},{"id":92,"name":"\u00c1cido percl\u00f3rico","formula":"HClO4","calculatedMolarWeight":false,"molarWeight":"100.460","density":"1.768","meltingPoint":"-112.00","boilingPoint":"19.00","acidType":"\u00c1cido fuerte","chargeType":"Neutro"},{"id":93,"name":"Hidr\u00f3xido de sodio","formula":"NaOH","calculatedMolarWeight":false,"molarWeight":"40.000","density":"2.130","meltingPoint":"323.00","boilingPoint":"1388.00","acidType":"Base fuerte","chargeType":"Neutro"},{"id":94,"name":"Hidr\u00f3xido de potasio","formula":"KOH","calculatedMolarWeight":false,"molarWeight":"56.110","density":"2.044","meltingPoint":"406.00","boilingPoint":"1323.00","acidType":"Base fuerte","chargeType":"Neutro"},{"id":95,"name":"Hidr\u00f3xido de bario","formula":"Ba(OH)2","calculatedMolarWeight":false,"molarWeight":"315.480","density":"2.180","meltingPoint":"78.00","boilingPoint":null,"acidType":"Base fuerte","chargeType":"Neutro"},{"id":96,"name":"Hidr\u00f3xido de litio","formula":"LiOH","calculatedMolarWeight":false,"molarWeight":"23.950","density":"1.450","meltingPoint":"471.20","boilingPoint":"1626.00","acidType":"Base fuerte","chargeType":"Neutro"}]